# Probe 0 (-100 0 0)
# Probe 1 (-99.995 0 0)
# Probe 2 (-99.99 0 0)
# Probe 3 (-99.985 0 0)
# Probe 4 (-99.98 0 0)
# Probe 5 (-99.975 0 0)
# Probe 6 (-99.97 0 0)
# Probe 7 (-99.965 0 0)
# Probe 8 (-99.96 0 0)
# Probe 9 (-99.955 0 0)
# Probe 10 (-99.95 0 0)
# Probe 11 (-99.945 0 0)
# Probe 12 (-99.94 0 0)
# Probe 13 (-99.935 0 0)
# Probe 14 (-99.93 0 0)
# Probe 15 (-99.925 0 0)
# Probe 16 (-99.92 0 0)
# Probe 17 (-99.915 0 0)
# Probe 18 (-99.91 0 0)
# Probe 19 (-99.905 0 0)
# Probe 20 (-99.9 0 0)
# Probe 21 (-99.895 0 0)
# Probe 22 (-99.89 0 0)
# Probe 23 (-99.885 0 0)
# Probe 24 (-99.88 0 0)
# Probe 25 (-99.875 0 0)
# Probe 26 (-99.87 0 0)
# Probe 27 (-99.865 0 0)
# Probe 28 (-99.86 0 0)
# Probe 29 (-99.855 0 0)
# Probe 30 (-99.85 0 0)
# Probe 31 (-99.845 0 0)
# Probe 32 (-99.84 0 0)
# Probe 33 (-99.835 0 0)
# Probe 34 (-99.83 0 0)
# Probe 35 (-99.825 0 0)
# Probe 36 (-99.82 0 0)
# Probe 37 (-99.815 0 0)
# Probe 38 (-99.81 0 0)
# Probe 39 (-99.805 0 0)
# Probe 40 (-99.8 0 0)
# Probe 41 (-99.795 0 0)
# Probe 42 (-99.79 0 0)
# Probe 43 (-99.785 0 0)
# Probe 44 (-99.78 0 0)
# Probe 45 (-99.775 0 0)
# Probe 46 (-99.77 0 0)
# Probe 47 (-99.765 0 0)
# Probe 48 (-99.76 0 0)
# Probe 49 (-99.755 0 0)
# Probe 50 (-99.75 0 0)
# Probe 51 (-99.745 0 0)
# Probe 52 (-99.74 0 0)
# Probe 53 (-99.735 0 0)
# Probe 54 (-99.73 0 0)
# Probe 55 (-99.725 0 0)
# Probe 56 (-99.72 0 0)
# Probe 57 (-99.715 0 0)
# Probe 58 (-99.71 0 0)
# Probe 59 (-99.705 0 0)
# Probe 60 (-99.7 0 0)
# Probe 61 (-99.695 0 0)
# Probe 62 (-99.69 0 0)
# Probe 63 (-99.685 0 0)
# Probe 64 (-99.68 0 0)
# Probe 65 (-99.675 0 0)
# Probe 66 (-99.67 0 0)
# Probe 67 (-99.665 0 0)
# Probe 68 (-99.66 0 0)
# Probe 69 (-99.655 0 0)
# Probe 70 (-99.65 0 0)
# Probe 71 (-99.645 0 0)
# Probe 72 (-99.64 0 0)
# Probe 73 (-99.635 0 0)
# Probe 74 (-99.63 0 0)
# Probe 75 (-99.625 0 0)
# Probe 76 (-99.62 0 0)
# Probe 77 (-99.615 0 0)
# Probe 78 (-99.61 0 0)
# Probe 79 (-99.605 0 0)
# Probe 80 (-99.6 0 0)
# Probe 81 (-99.595 0 0)
# Probe 82 (-99.59 0 0)
# Probe 83 (-99.585 0 0)
# Probe 84 (-99.58 0 0)
# Probe 85 (-99.575 0 0)
# Probe 86 (-99.57 0 0)
# Probe 87 (-99.565 0 0)
# Probe 88 (-99.56 0 0)
# Probe 89 (-99.555 0 0)
# Probe 90 (-99.55 0 0)
# Probe 91 (-99.545 0 0)
# Probe 92 (-99.54 0 0)
# Probe 93 (-99.535 0 0)
# Probe 94 (-99.53 0 0)
# Probe 95 (-99.525 0 0)
# Probe 96 (-99.52 0 0)
# Probe 97 (-99.515 0 0)
# Probe 98 (-99.51 0 0)
# Probe 99 (-99.505 0 0)
# Probe 100 (-99.5 0 0)
# Probe 101 (-99.495 0 0)
# Probe 102 (-99.49 0 0)
# Probe 103 (-99.485 0 0)
# Probe 104 (-99.48 0 0)
# Probe 105 (-99.475 0 0)
# Probe 106 (-99.47 0 0)
# Probe 107 (-99.465 0 0)
# Probe 108 (-99.46 0 0)
# Probe 109 (-99.455 0 0)
# Probe 110 (-99.45 0 0)
# Probe 111 (-99.445 0 0)
# Probe 112 (-99.44 0 0)
# Probe 113 (-99.435 0 0)
# Probe 114 (-99.43 0 0)
# Probe 115 (-99.425 0 0)
# Probe 116 (-99.42 0 0)
# Probe 117 (-99.415 0 0)
# Probe 118 (-99.41 0 0)
# Probe 119 (-99.405 0 0)
# Probe 120 (-99.4 0 0)
# Probe 121 (-99.395 0 0)
# Probe 122 (-99.39 0 0)
# Probe 123 (-99.385 0 0)
# Probe 124 (-99.38 0 0)
# Probe 125 (-99.375 0 0)
# Probe 126 (-99.37 0 0)
# Probe 127 (-99.365 0 0)
# Probe 128 (-99.36 0 0)
# Probe 129 (-99.355 0 0)
# Probe 130 (-99.35 0 0)
# Probe 131 (-99.345 0 0)
# Probe 132 (-99.34 0 0)
# Probe 133 (-99.335 0 0)
# Probe 134 (-99.33 0 0)
# Probe 135 (-99.325 0 0)
# Probe 136 (-99.32 0 0)
# Probe 137 (-99.315 0 0)
# Probe 138 (-99.31 0 0)
# Probe 139 (-99.305 0 0)
# Probe 140 (-99.3 0 0)
# Probe 141 (-99.295 0 0)
# Probe 142 (-99.29 0 0)
# Probe 143 (-99.285 0 0)
# Probe 144 (-99.28 0 0)
# Probe 145 (-99.275 0 0)
# Probe 146 (-99.27 0 0)
# Probe 147 (-99.265 0 0)
# Probe 148 (-99.26 0 0)
# Probe 149 (-99.255 0 0)
# Probe 150 (-99.25 0 0)
# Probe 151 (-99.245 0 0)
# Probe 152 (-99.24 0 0)
# Probe 153 (-99.235 0 0)
# Probe 154 (-99.23 0 0)
# Probe 155 (-99.225 0 0)
# Probe 156 (-99.22 0 0)
# Probe 157 (-99.215 0 0)
# Probe 158 (-99.21 0 0)
# Probe 159 (-99.205 0 0)
# Probe 160 (-99.2 0 0)
# Probe 161 (-99.195 0 0)
# Probe 162 (-99.19 0 0)
# Probe 163 (-99.185 0 0)
# Probe 164 (-99.18 0 0)
# Probe 165 (-99.175 0 0)
# Probe 166 (-99.17 0 0)
# Probe 167 (-99.165 0 0)
# Probe 168 (-99.16 0 0)
# Probe 169 (-99.155 0 0)
# Probe 170 (-99.15 0 0)
# Probe 171 (-99.145 0 0)
# Probe 172 (-99.14 0 0)
# Probe 173 (-99.135 0 0)
# Probe 174 (-99.13 0 0)
# Probe 175 (-99.125 0 0)
# Probe 176 (-99.12 0 0)
# Probe 177 (-99.115 0 0)
# Probe 178 (-99.11 0 0)
# Probe 179 (-99.105 0 0)
# Probe 180 (-99.1 0 0)
# Probe 181 (-99.095 0 0)
# Probe 182 (-99.09 0 0)
# Probe 183 (-99.085 0 0)
# Probe 184 (-99.08 0 0)
# Probe 185 (-99.075 0 0)
# Probe 186 (-99.07 0 0)
# Probe 187 (-99.065 0 0)
# Probe 188 (-99.06 0 0)
# Probe 189 (-99.055 0 0)
# Probe 190 (-99.05 0 0)
# Probe 191 (-99.045 0 0)
# Probe 192 (-99.04 0 0)
# Probe 193 (-99.035 0 0)
# Probe 194 (-99.03 0 0)
# Probe 195 (-99.025 0 0)
# Probe 196 (-99.02 0 0)
# Probe 197 (-99.015 0 0)
# Probe 198 (-99.01 0 0)
# Probe 199 (-99.005 0 0)
# Probe 200 (-99 0 0)
# Probe 201 (-98.995 0 0)
# Probe 202 (-98.99 0 0)
# Probe 203 (-98.985 0 0)
# Probe 204 (-98.98 0 0)
# Probe 205 (-98.975 0 0)
# Probe 206 (-98.97 0 0)
# Probe 207 (-98.965 0 0)
# Probe 208 (-98.96 0 0)
# Probe 209 (-98.955 0 0)
# Probe 210 (-98.95 0 0)
# Probe 211 (-98.945 0 0)
# Probe 212 (-98.94 0 0)
# Probe 213 (-98.935 0 0)
# Probe 214 (-98.93 0 0)
# Probe 215 (-98.925 0 0)
# Probe 216 (-98.92 0 0)
# Probe 217 (-98.915 0 0)
# Probe 218 (-98.91 0 0)
# Probe 219 (-98.905 0 0)
# Probe 220 (-98.9 0 0)
# Probe 221 (-98.895 0 0)
# Probe 222 (-98.89 0 0)
# Probe 223 (-98.885 0 0)
# Probe 224 (-98.88 0 0)
# Probe 225 (-98.875 0 0)
# Probe 226 (-98.87 0 0)
# Probe 227 (-98.865 0 0)
# Probe 228 (-98.86 0 0)
# Probe 229 (-98.855 0 0)
# Probe 230 (-98.85 0 0)
# Probe 231 (-98.845 0 0)
# Probe 232 (-98.84 0 0)
# Probe 233 (-98.835 0 0)
# Probe 234 (-98.83 0 0)
# Probe 235 (-98.825 0 0)
# Probe 236 (-98.82 0 0)
# Probe 237 (-98.815 0 0)
# Probe 238 (-98.81 0 0)
# Probe 239 (-98.805 0 0)
# Probe 240 (-98.8 0 0)
# Probe 241 (-98.795 0 0)
# Probe 242 (-98.79 0 0)
# Probe 243 (-98.785 0 0)
# Probe 244 (-98.78 0 0)
# Probe 245 (-98.775 0 0)
# Probe 246 (-98.77 0 0)
# Probe 247 (-98.765 0 0)
# Probe 248 (-98.76 0 0)
# Probe 249 (-98.755 0 0)
# Probe 250 (-98.75 0 0)
# Probe 251 (-98.745 0 0)
# Probe 252 (-98.74 0 0)
# Probe 253 (-98.735 0 0)
# Probe 254 (-98.73 0 0)
# Probe 255 (-98.725 0 0)
# Probe 256 (-98.72 0 0)
# Probe 257 (-98.715 0 0)
# Probe 258 (-98.71 0 0)
# Probe 259 (-98.705 0 0)
# Probe 260 (-98.7 0 0)
# Probe 261 (-98.695 0 0)
# Probe 262 (-98.69 0 0)
# Probe 263 (-98.685 0 0)
# Probe 264 (-98.68 0 0)
# Probe 265 (-98.675 0 0)
# Probe 266 (-98.67 0 0)
# Probe 267 (-98.665 0 0)
# Probe 268 (-98.66 0 0)
# Probe 269 (-98.655 0 0)
# Probe 270 (-98.65 0 0)
# Probe 271 (-98.645 0 0)
# Probe 272 (-98.64 0 0)
# Probe 273 (-98.635 0 0)
# Probe 274 (-98.63 0 0)
# Probe 275 (-98.625 0 0)
# Probe 276 (-98.62 0 0)
# Probe 277 (-98.615 0 0)
# Probe 278 (-98.61 0 0)
# Probe 279 (-98.605 0 0)
# Probe 280 (-98.6 0 0)
# Probe 281 (-98.595 0 0)
# Probe 282 (-98.59 0 0)
# Probe 283 (-98.585 0 0)
# Probe 284 (-98.58 0 0)
# Probe 285 (-98.575 0 0)
# Probe 286 (-98.57 0 0)
# Probe 287 (-98.565 0 0)
# Probe 288 (-98.56 0 0)
# Probe 289 (-98.555 0 0)
# Probe 290 (-98.55 0 0)
# Probe 291 (-98.545 0 0)
# Probe 292 (-98.54 0 0)
# Probe 293 (-98.535 0 0)
# Probe 294 (-98.53 0 0)
# Probe 295 (-98.525 0 0)
# Probe 296 (-98.52 0 0)
# Probe 297 (-98.515 0 0)
# Probe 298 (-98.51 0 0)
# Probe 299 (-98.505 0 0)
# Probe 300 (-98.5 0 0)
# Probe 301 (-98.495 0 0)
# Probe 302 (-98.49 0 0)
# Probe 303 (-98.485 0 0)
# Probe 304 (-98.48 0 0)
# Probe 305 (-98.475 0 0)
# Probe 306 (-98.47 0 0)
# Probe 307 (-98.465 0 0)
# Probe 308 (-98.46 0 0)
# Probe 309 (-98.455 0 0)
# Probe 310 (-98.45 0 0)
# Probe 311 (-98.445 0 0)
# Probe 312 (-98.44 0 0)
# Probe 313 (-98.435 0 0)
# Probe 314 (-98.43 0 0)
# Probe 315 (-98.425 0 0)
# Probe 316 (-98.42 0 0)
# Probe 317 (-98.415 0 0)
# Probe 318 (-98.41 0 0)
# Probe 319 (-98.405 0 0)
# Probe 320 (-98.4 0 0)
# Probe 321 (-98.395 0 0)
# Probe 322 (-98.39 0 0)
# Probe 323 (-98.385 0 0)
# Probe 324 (-98.38 0 0)
# Probe 325 (-98.375 0 0)
# Probe 326 (-98.37 0 0)
# Probe 327 (-98.365 0 0)
# Probe 328 (-98.36 0 0)
# Probe 329 (-98.355 0 0)
# Probe 330 (-98.35 0 0)
# Probe 331 (-98.345 0 0)
# Probe 332 (-98.34 0 0)
# Probe 333 (-98.335 0 0)
# Probe 334 (-98.33 0 0)
# Probe 335 (-98.325 0 0)
# Probe 336 (-98.32 0 0)
# Probe 337 (-98.315 0 0)
# Probe 338 (-98.31 0 0)
# Probe 339 (-98.305 0 0)
# Probe 340 (-98.3 0 0)
# Probe 341 (-98.295 0 0)
# Probe 342 (-98.29 0 0)
# Probe 343 (-98.285 0 0)
# Probe 344 (-98.28 0 0)
# Probe 345 (-98.275 0 0)
# Probe 346 (-98.27 0 0)
# Probe 347 (-98.265 0 0)
# Probe 348 (-98.26 0 0)
# Probe 349 (-98.255 0 0)
# Probe 350 (-98.25 0 0)
# Probe 351 (-98.245 0 0)
# Probe 352 (-98.24 0 0)
# Probe 353 (-98.235 0 0)
# Probe 354 (-98.23 0 0)
# Probe 355 (-98.225 0 0)
# Probe 356 (-98.22 0 0)
# Probe 357 (-98.215 0 0)
# Probe 358 (-98.21 0 0)
# Probe 359 (-98.205 0 0)
# Probe 360 (-98.2 0 0)
# Probe 361 (-98.195 0 0)
# Probe 362 (-98.19 0 0)
# Probe 363 (-98.185 0 0)
# Probe 364 (-98.18 0 0)
# Probe 365 (-98.175 0 0)
# Probe 366 (-98.17 0 0)
# Probe 367 (-98.165 0 0)
# Probe 368 (-98.16 0 0)
# Probe 369 (-98.155 0 0)
# Probe 370 (-98.15 0 0)
# Probe 371 (-98.145 0 0)
# Probe 372 (-98.14 0 0)
# Probe 373 (-98.135 0 0)
# Probe 374 (-98.13 0 0)
# Probe 375 (-98.125 0 0)
# Probe 376 (-98.12 0 0)
# Probe 377 (-98.115 0 0)
# Probe 378 (-98.11 0 0)
# Probe 379 (-98.105 0 0)
# Probe 380 (-98.1 0 0)
# Probe 381 (-98.095 0 0)
# Probe 382 (-98.09 0 0)
# Probe 383 (-98.085 0 0)
# Probe 384 (-98.08 0 0)
# Probe 385 (-98.075 0 0)
# Probe 386 (-98.07 0 0)
# Probe 387 (-98.065 0 0)
# Probe 388 (-98.06 0 0)
# Probe 389 (-98.055 0 0)
# Probe 390 (-98.05 0 0)
# Probe 391 (-98.045 0 0)
# Probe 392 (-98.04 0 0)
# Probe 393 (-98.035 0 0)
# Probe 394 (-98.03 0 0)
# Probe 395 (-98.025 0 0)
# Probe 396 (-98.02 0 0)
# Probe 397 (-98.015 0 0)
# Probe 398 (-98.01 0 0)
# Probe 399 (-98.005 0 0)
# Probe 400 (-98 0 0)
# Probe 401 (-97.995 0 0)
# Probe 402 (-97.99 0 0)
# Probe 403 (-97.985 0 0)
# Probe 404 (-97.98 0 0)
# Probe 405 (-97.975 0 0)
# Probe 406 (-97.97 0 0)
# Probe 407 (-97.965 0 0)
# Probe 408 (-97.96 0 0)
# Probe 409 (-97.955 0 0)
# Probe 410 (-97.95 0 0)
# Probe 411 (-97.945 0 0)
# Probe 412 (-97.94 0 0)
# Probe 413 (-97.935 0 0)
# Probe 414 (-97.93 0 0)
# Probe 415 (-97.925 0 0)
# Probe 416 (-97.92 0 0)
# Probe 417 (-97.915 0 0)
# Probe 418 (-97.91 0 0)
# Probe 419 (-97.905 0 0)
# Probe 420 (-97.9 0 0)
# Probe 421 (-97.895 0 0)
# Probe 422 (-97.89 0 0)
# Probe 423 (-97.885 0 0)
# Probe 424 (-97.88 0 0)
# Probe 425 (-97.875 0 0)
# Probe 426 (-97.87 0 0)
# Probe 427 (-97.865 0 0)
# Probe 428 (-97.86 0 0)
# Probe 429 (-97.855 0 0)
# Probe 430 (-97.85 0 0)
# Probe 431 (-97.845 0 0)
# Probe 432 (-97.84 0 0)
# Probe 433 (-97.835 0 0)
# Probe 434 (-97.83 0 0)
# Probe 435 (-97.825 0 0)
# Probe 436 (-97.82 0 0)
# Probe 437 (-97.815 0 0)
# Probe 438 (-97.81 0 0)
# Probe 439 (-97.805 0 0)
# Probe 440 (-97.8 0 0)
# Probe 441 (-97.795 0 0)
# Probe 442 (-97.79 0 0)
# Probe 443 (-97.785 0 0)
# Probe 444 (-97.78 0 0)
# Probe 445 (-97.775 0 0)
# Probe 446 (-97.77 0 0)
# Probe 447 (-97.765 0 0)
# Probe 448 (-97.76 0 0)
# Probe 449 (-97.755 0 0)
# Probe 450 (-97.75 0 0)
# Probe 451 (-97.745 0 0)
# Probe 452 (-97.74 0 0)
# Probe 453 (-97.735 0 0)
# Probe 454 (-97.73 0 0)
# Probe 455 (-97.725 0 0)
# Probe 456 (-97.72 0 0)
# Probe 457 (-97.715 0 0)
# Probe 458 (-97.71 0 0)
# Probe 459 (-97.705 0 0)
# Probe 460 (-97.7 0 0)
# Probe 461 (-97.695 0 0)
# Probe 462 (-97.69 0 0)
# Probe 463 (-97.685 0 0)
# Probe 464 (-97.68 0 0)
# Probe 465 (-97.675 0 0)
# Probe 466 (-97.67 0 0)
# Probe 467 (-97.665 0 0)
# Probe 468 (-97.66 0 0)
# Probe 469 (-97.655 0 0)
# Probe 470 (-97.65 0 0)
# Probe 471 (-97.645 0 0)
# Probe 472 (-97.64 0 0)
# Probe 473 (-97.635 0 0)
# Probe 474 (-97.63 0 0)
# Probe 475 (-97.625 0 0)
# Probe 476 (-97.62 0 0)
# Probe 477 (-97.615 0 0)
# Probe 478 (-97.61 0 0)
# Probe 479 (-97.605 0 0)
# Probe 480 (-97.6 0 0)
# Probe 481 (-97.595 0 0)
# Probe 482 (-97.59 0 0)
# Probe 483 (-97.585 0 0)
# Probe 484 (-97.58 0 0)
# Probe 485 (-97.575 0 0)
# Probe 486 (-97.57 0 0)
# Probe 487 (-97.565 0 0)
# Probe 488 (-97.56 0 0)
# Probe 489 (-97.555 0 0)
# Probe 490 (-97.55 0 0)
# Probe 491 (-97.545 0 0)
# Probe 492 (-97.54 0 0)
# Probe 493 (-97.535 0 0)
# Probe 494 (-97.53 0 0)
# Probe 495 (-97.525 0 0)
# Probe 496 (-97.52 0 0)
# Probe 497 (-97.515 0 0)
# Probe 498 (-97.51 0 0)
# Probe 499 (-97.505 0 0)
# Probe 500 (-97.5 0 0)
# Probe 501 (-97.495 0 0)
# Probe 502 (-97.49 0 0)
# Probe 503 (-97.485 0 0)
# Probe 504 (-97.48 0 0)
# Probe 505 (-97.475 0 0)
# Probe 506 (-97.47 0 0)
# Probe 507 (-97.465 0 0)
# Probe 508 (-97.46 0 0)
# Probe 509 (-97.455 0 0)
# Probe 510 (-97.45 0 0)
# Probe 511 (-97.445 0 0)
# Probe 512 (-97.44 0 0)
# Probe 513 (-97.435 0 0)
# Probe 514 (-97.43 0 0)
# Probe 515 (-97.425 0 0)
# Probe 516 (-97.42 0 0)
# Probe 517 (-97.415 0 0)
# Probe 518 (-97.41 0 0)
# Probe 519 (-97.405 0 0)
# Probe 520 (-97.4 0 0)
# Probe 521 (-97.395 0 0)
# Probe 522 (-97.39 0 0)
# Probe 523 (-97.385 0 0)
# Probe 524 (-97.38 0 0)
# Probe 525 (-97.375 0 0)
# Probe 526 (-97.37 0 0)
# Probe 527 (-97.365 0 0)
# Probe 528 (-97.36 0 0)
# Probe 529 (-97.355 0 0)
# Probe 530 (-97.35 0 0)
# Probe 531 (-97.345 0 0)
# Probe 532 (-97.34 0 0)
# Probe 533 (-97.335 0 0)
# Probe 534 (-97.33 0 0)
# Probe 535 (-97.325 0 0)
# Probe 536 (-97.32 0 0)
# Probe 537 (-97.315 0 0)
# Probe 538 (-97.31 0 0)
# Probe 539 (-97.305 0 0)
# Probe 540 (-97.3 0 0)
# Probe 541 (-97.295 0 0)
# Probe 542 (-97.29 0 0)
# Probe 543 (-97.285 0 0)
# Probe 544 (-97.28 0 0)
# Probe 545 (-97.275 0 0)
# Probe 546 (-97.27 0 0)
# Probe 547 (-97.265 0 0)
# Probe 548 (-97.26 0 0)
# Probe 549 (-97.255 0 0)
# Probe 550 (-97.25 0 0)
# Probe 551 (-97.245 0 0)
# Probe 552 (-97.24 0 0)
# Probe 553 (-97.235 0 0)
# Probe 554 (-97.23 0 0)
# Probe 555 (-97.225 0 0)
# Probe 556 (-97.22 0 0)
# Probe 557 (-97.215 0 0)
# Probe 558 (-97.21 0 0)
# Probe 559 (-97.205 0 0)
# Probe 560 (-97.2 0 0)
# Probe 561 (-97.195 0 0)
# Probe 562 (-97.19 0 0)
# Probe 563 (-97.185 0 0)
# Probe 564 (-97.18 0 0)
# Probe 565 (-97.175 0 0)
# Probe 566 (-97.17 0 0)
# Probe 567 (-97.165 0 0)
# Probe 568 (-97.16 0 0)
# Probe 569 (-97.155 0 0)
# Probe 570 (-97.15 0 0)
# Probe 571 (-97.145 0 0)
# Probe 572 (-97.14 0 0)
# Probe 573 (-97.135 0 0)
# Probe 574 (-97.13 0 0)
# Probe 575 (-97.125 0 0)
# Probe 576 (-97.12 0 0)
# Probe 577 (-97.115 0 0)
# Probe 578 (-97.11 0 0)
# Probe 579 (-97.105 0 0)
# Probe 580 (-97.1 0 0)
# Probe 581 (-97.095 0 0)
# Probe 582 (-97.09 0 0)
# Probe 583 (-97.085 0 0)
# Probe 584 (-97.08 0 0)
# Probe 585 (-97.075 0 0)
# Probe 586 (-97.07 0 0)
# Probe 587 (-97.065 0 0)
# Probe 588 (-97.06 0 0)
# Probe 589 (-97.055 0 0)
# Probe 590 (-97.05 0 0)
# Probe 591 (-97.045 0 0)
# Probe 592 (-97.04 0 0)
# Probe 593 (-97.035 0 0)
# Probe 594 (-97.03 0 0)
# Probe 595 (-97.025 0 0)
# Probe 596 (-97.02 0 0)
# Probe 597 (-97.015 0 0)
# Probe 598 (-97.01 0 0)
# Probe 599 (-97.005 0 0)
# Probe 600 (-97 0 0)
# Probe 601 (-96.995 0 0)
# Probe 602 (-96.99 0 0)
# Probe 603 (-96.985 0 0)
# Probe 604 (-96.98 0 0)
# Probe 605 (-96.975 0 0)
# Probe 606 (-96.97 0 0)
# Probe 607 (-96.965 0 0)
# Probe 608 (-96.96 0 0)
# Probe 609 (-96.955 0 0)
# Probe 610 (-96.95 0 0)
# Probe 611 (-96.945 0 0)
# Probe 612 (-96.94 0 0)
# Probe 613 (-96.935 0 0)
# Probe 614 (-96.93 0 0)
# Probe 615 (-96.925 0 0)
# Probe 616 (-96.92 0 0)
# Probe 617 (-96.915 0 0)
# Probe 618 (-96.91 0 0)
# Probe 619 (-96.905 0 0)
# Probe 620 (-96.9 0 0)
# Probe 621 (-96.895 0 0)
# Probe 622 (-96.89 0 0)
# Probe 623 (-96.885 0 0)
# Probe 624 (-96.88 0 0)
# Probe 625 (-96.875 0 0)
# Probe 626 (-96.87 0 0)
# Probe 627 (-96.865 0 0)
# Probe 628 (-96.86 0 0)
# Probe 629 (-96.855 0 0)
# Probe 630 (-96.85 0 0)
# Probe 631 (-96.845 0 0)
# Probe 632 (-96.84 0 0)
# Probe 633 (-96.835 0 0)
# Probe 634 (-96.83 0 0)
# Probe 635 (-96.825 0 0)
# Probe 636 (-96.82 0 0)
# Probe 637 (-96.815 0 0)
# Probe 638 (-96.81 0 0)
# Probe 639 (-96.805 0 0)
# Probe 640 (-96.8 0 0)
# Probe 641 (-96.795 0 0)
# Probe 642 (-96.79 0 0)
# Probe 643 (-96.785 0 0)
# Probe 644 (-96.78 0 0)
# Probe 645 (-96.775 0 0)
# Probe 646 (-96.77 0 0)
# Probe 647 (-96.765 0 0)
# Probe 648 (-96.76 0 0)
# Probe 649 (-96.755 0 0)
# Probe 650 (-96.75 0 0)
# Probe 651 (-96.745 0 0)
# Probe 652 (-96.74 0 0)
# Probe 653 (-96.735 0 0)
# Probe 654 (-96.73 0 0)
# Probe 655 (-96.725 0 0)
# Probe 656 (-96.72 0 0)
# Probe 657 (-96.715 0 0)
# Probe 658 (-96.71 0 0)
# Probe 659 (-96.705 0 0)
# Probe 660 (-96.7 0 0)
# Probe 661 (-96.695 0 0)
# Probe 662 (-96.69 0 0)
# Probe 663 (-96.685 0 0)
# Probe 664 (-96.68 0 0)
# Probe 665 (-96.675 0 0)
# Probe 666 (-96.67 0 0)
# Probe 667 (-96.665 0 0)
# Probe 668 (-96.66 0 0)
# Probe 669 (-96.655 0 0)
# Probe 670 (-96.65 0 0)
# Probe 671 (-96.645 0 0)
# Probe 672 (-96.64 0 0)
# Probe 673 (-96.635 0 0)
# Probe 674 (-96.63 0 0)
# Probe 675 (-96.625 0 0)
# Probe 676 (-96.62 0 0)
# Probe 677 (-96.615 0 0)
# Probe 678 (-96.61 0 0)
# Probe 679 (-96.605 0 0)
# Probe 680 (-96.6 0 0)
# Probe 681 (-96.595 0 0)
# Probe 682 (-96.59 0 0)
# Probe 683 (-96.585 0 0)
# Probe 684 (-96.58 0 0)
# Probe 685 (-96.575 0 0)
# Probe 686 (-96.57 0 0)
# Probe 687 (-96.565 0 0)
# Probe 688 (-96.56 0 0)
# Probe 689 (-96.555 0 0)
# Probe 690 (-96.55 0 0)
# Probe 691 (-96.545 0 0)
# Probe 692 (-96.54 0 0)
# Probe 693 (-96.535 0 0)
# Probe 694 (-96.53 0 0)
# Probe 695 (-96.525 0 0)
# Probe 696 (-96.52 0 0)
# Probe 697 (-96.515 0 0)
# Probe 698 (-96.51 0 0)
# Probe 699 (-96.505 0 0)
# Probe 700 (-96.5 0 0)
# Probe 701 (-96.495 0 0)
# Probe 702 (-96.49 0 0)
# Probe 703 (-96.485 0 0)
# Probe 704 (-96.48 0 0)
# Probe 705 (-96.475 0 0)
# Probe 706 (-96.47 0 0)
# Probe 707 (-96.465 0 0)
# Probe 708 (-96.46 0 0)
# Probe 709 (-96.455 0 0)
# Probe 710 (-96.45 0 0)
# Probe 711 (-96.445 0 0)
# Probe 712 (-96.44 0 0)
# Probe 713 (-96.435 0 0)
# Probe 714 (-96.43 0 0)
# Probe 715 (-96.425 0 0)
# Probe 716 (-96.42 0 0)
# Probe 717 (-96.415 0 0)
# Probe 718 (-96.41 0 0)
# Probe 719 (-96.405 0 0)
# Probe 720 (-96.4 0 0)
# Probe 721 (-96.395 0 0)
# Probe 722 (-96.39 0 0)
# Probe 723 (-96.385 0 0)
# Probe 724 (-96.38 0 0)
# Probe 725 (-96.375 0 0)
# Probe 726 (-96.37 0 0)
# Probe 727 (-96.365 0 0)
# Probe 728 (-96.36 0 0)
# Probe 729 (-96.355 0 0)
# Probe 730 (-96.35 0 0)
# Probe 731 (-96.345 0 0)
# Probe 732 (-96.34 0 0)
# Probe 733 (-96.335 0 0)
# Probe 734 (-96.33 0 0)
# Probe 735 (-96.325 0 0)
# Probe 736 (-96.32 0 0)
# Probe 737 (-96.315 0 0)
# Probe 738 (-96.31 0 0)
# Probe 739 (-96.305 0 0)
# Probe 740 (-96.3 0 0)
# Probe 741 (-96.295 0 0)
# Probe 742 (-96.29 0 0)
# Probe 743 (-96.285 0 0)
# Probe 744 (-96.28 0 0)
# Probe 745 (-96.275 0 0)
# Probe 746 (-96.27 0 0)
# Probe 747 (-96.265 0 0)
# Probe 748 (-96.26 0 0)
# Probe 749 (-96.255 0 0)
# Probe 750 (-96.25 0 0)
# Probe 751 (-96.245 0 0)
# Probe 752 (-96.24 0 0)
# Probe 753 (-96.235 0 0)
# Probe 754 (-96.23 0 0)
# Probe 755 (-96.225 0 0)
# Probe 756 (-96.22 0 0)
# Probe 757 (-96.215 0 0)
# Probe 758 (-96.21 0 0)
# Probe 759 (-96.205 0 0)
# Probe 760 (-96.2 0 0)
# Probe 761 (-96.195 0 0)
# Probe 762 (-96.19 0 0)
# Probe 763 (-96.185 0 0)
# Probe 764 (-96.18 0 0)
# Probe 765 (-96.175 0 0)
# Probe 766 (-96.17 0 0)
# Probe 767 (-96.165 0 0)
# Probe 768 (-96.16 0 0)
# Probe 769 (-96.155 0 0)
# Probe 770 (-96.15 0 0)
# Probe 771 (-96.145 0 0)
# Probe 772 (-96.14 0 0)
# Probe 773 (-96.135 0 0)
# Probe 774 (-96.13 0 0)
# Probe 775 (-96.125 0 0)
# Probe 776 (-96.12 0 0)
# Probe 777 (-96.115 0 0)
# Probe 778 (-96.11 0 0)
# Probe 779 (-96.105 0 0)
# Probe 780 (-96.1 0 0)
# Probe 781 (-96.095 0 0)
# Probe 782 (-96.09 0 0)
# Probe 783 (-96.085 0 0)
# Probe 784 (-96.08 0 0)
# Probe 785 (-96.075 0 0)
# Probe 786 (-96.07 0 0)
# Probe 787 (-96.065 0 0)
# Probe 788 (-96.06 0 0)
# Probe 789 (-96.055 0 0)
# Probe 790 (-96.05 0 0)
# Probe 791 (-96.045 0 0)
# Probe 792 (-96.04 0 0)
# Probe 793 (-96.035 0 0)
# Probe 794 (-96.03 0 0)
# Probe 795 (-96.025 0 0)
# Probe 796 (-96.02 0 0)
# Probe 797 (-96.015 0 0)
# Probe 798 (-96.01 0 0)
# Probe 799 (-96.005 0 0)
# Probe 800 (-96 0 0)
# Probe 801 (-95.995 0 0)
# Probe 802 (-95.99 0 0)
# Probe 803 (-95.985 0 0)
# Probe 804 (-95.98 0 0)
# Probe 805 (-95.975 0 0)
# Probe 806 (-95.97 0 0)
# Probe 807 (-95.965 0 0)
# Probe 808 (-95.96 0 0)
# Probe 809 (-95.955 0 0)
# Probe 810 (-95.95 0 0)
# Probe 811 (-95.945 0 0)
# Probe 812 (-95.94 0 0)
# Probe 813 (-95.935 0 0)
# Probe 814 (-95.93 0 0)
# Probe 815 (-95.925 0 0)
# Probe 816 (-95.92 0 0)
# Probe 817 (-95.915 0 0)
# Probe 818 (-95.91 0 0)
# Probe 819 (-95.905 0 0)
# Probe 820 (-95.9 0 0)
# Probe 821 (-95.895 0 0)
# Probe 822 (-95.89 0 0)
# Probe 823 (-95.885 0 0)
# Probe 824 (-95.88 0 0)
# Probe 825 (-95.875 0 0)
# Probe 826 (-95.87 0 0)
# Probe 827 (-95.865 0 0)
# Probe 828 (-95.86 0 0)
# Probe 829 (-95.855 0 0)
# Probe 830 (-95.85 0 0)
# Probe 831 (-95.845 0 0)
# Probe 832 (-95.84 0 0)
# Probe 833 (-95.835 0 0)
# Probe 834 (-95.83 0 0)
# Probe 835 (-95.825 0 0)
# Probe 836 (-95.82 0 0)
# Probe 837 (-95.815 0 0)
# Probe 838 (-95.81 0 0)
# Probe 839 (-95.805 0 0)
# Probe 840 (-95.8 0 0)
# Probe 841 (-95.795 0 0)
# Probe 842 (-95.79 0 0)
# Probe 843 (-95.785 0 0)
# Probe 844 (-95.78 0 0)
# Probe 845 (-95.775 0 0)
# Probe 846 (-95.77 0 0)
# Probe 847 (-95.765 0 0)
# Probe 848 (-95.76 0 0)
# Probe 849 (-95.755 0 0)
# Probe 850 (-95.75 0 0)
# Probe 851 (-95.745 0 0)
# Probe 852 (-95.74 0 0)
# Probe 853 (-95.735 0 0)
# Probe 854 (-95.73 0 0)
# Probe 855 (-95.725 0 0)
# Probe 856 (-95.72 0 0)
# Probe 857 (-95.715 0 0)
# Probe 858 (-95.71 0 0)
# Probe 859 (-95.705 0 0)
# Probe 860 (-95.7 0 0)
# Probe 861 (-95.695 0 0)
# Probe 862 (-95.69 0 0)
# Probe 863 (-95.685 0 0)
# Probe 864 (-95.68 0 0)
# Probe 865 (-95.675 0 0)
# Probe 866 (-95.67 0 0)
# Probe 867 (-95.665 0 0)
# Probe 868 (-95.66 0 0)
# Probe 869 (-95.655 0 0)
# Probe 870 (-95.65 0 0)
# Probe 871 (-95.645 0 0)
# Probe 872 (-95.64 0 0)
# Probe 873 (-95.635 0 0)
# Probe 874 (-95.63 0 0)
# Probe 875 (-95.625 0 0)
# Probe 876 (-95.62 0 0)
# Probe 877 (-95.615 0 0)
# Probe 878 (-95.61 0 0)
# Probe 879 (-95.605 0 0)
# Probe 880 (-95.6 0 0)
# Probe 881 (-95.595 0 0)
# Probe 882 (-95.59 0 0)
# Probe 883 (-95.585 0 0)
# Probe 884 (-95.58 0 0)
# Probe 885 (-95.575 0 0)
# Probe 886 (-95.57 0 0)
# Probe 887 (-95.565 0 0)
# Probe 888 (-95.56 0 0)
# Probe 889 (-95.555 0 0)
# Probe 890 (-95.55 0 0)
# Probe 891 (-95.545 0 0)
# Probe 892 (-95.54 0 0)
# Probe 893 (-95.535 0 0)
# Probe 894 (-95.53 0 0)
# Probe 895 (-95.525 0 0)
# Probe 896 (-95.52 0 0)
# Probe 897 (-95.515 0 0)
# Probe 898 (-95.51 0 0)
# Probe 899 (-95.505 0 0)
# Probe 900 (-95.5 0 0)
# Probe 901 (-95.495 0 0)
# Probe 902 (-95.49 0 0)
# Probe 903 (-95.485 0 0)
# Probe 904 (-95.48 0 0)
# Probe 905 (-95.475 0 0)
# Probe 906 (-95.47 0 0)
# Probe 907 (-95.465 0 0)
# Probe 908 (-95.46 0 0)
# Probe 909 (-95.455 0 0)
# Probe 910 (-95.45 0 0)
# Probe 911 (-95.445 0 0)
# Probe 912 (-95.44 0 0)
# Probe 913 (-95.435 0 0)
# Probe 914 (-95.43 0 0)
# Probe 915 (-95.425 0 0)
# Probe 916 (-95.42 0 0)
# Probe 917 (-95.415 0 0)
# Probe 918 (-95.41 0 0)
# Probe 919 (-95.405 0 0)
# Probe 920 (-95.4 0 0)
# Probe 921 (-95.395 0 0)
# Probe 922 (-95.39 0 0)
# Probe 923 (-95.385 0 0)
# Probe 924 (-95.38 0 0)
# Probe 925 (-95.375 0 0)
# Probe 926 (-95.37 0 0)
# Probe 927 (-95.365 0 0)
# Probe 928 (-95.36 0 0)
# Probe 929 (-95.355 0 0)
# Probe 930 (-95.35 0 0)
# Probe 931 (-95.345 0 0)
# Probe 932 (-95.34 0 0)
# Probe 933 (-95.335 0 0)
# Probe 934 (-95.33 0 0)
# Probe 935 (-95.325 0 0)
# Probe 936 (-95.32 0 0)
# Probe 937 (-95.315 0 0)
# Probe 938 (-95.31 0 0)
# Probe 939 (-95.305 0 0)
# Probe 940 (-95.3 0 0)
# Probe 941 (-95.295 0 0)
# Probe 942 (-95.29 0 0)
# Probe 943 (-95.285 0 0)
# Probe 944 (-95.28 0 0)
# Probe 945 (-95.275 0 0)
# Probe 946 (-95.27 0 0)
# Probe 947 (-95.265 0 0)
# Probe 948 (-95.26 0 0)
# Probe 949 (-95.255 0 0)
# Probe 950 (-95.25 0 0)
# Probe 951 (-95.245 0 0)
# Probe 952 (-95.24 0 0)
# Probe 953 (-95.235 0 0)
# Probe 954 (-95.23 0 0)
# Probe 955 (-95.225 0 0)
# Probe 956 (-95.22 0 0)
# Probe 957 (-95.215 0 0)
# Probe 958 (-95.21 0 0)
# Probe 959 (-95.205 0 0)
# Probe 960 (-95.2 0 0)
# Probe 961 (-95.195 0 0)
# Probe 962 (-95.19 0 0)
# Probe 963 (-95.185 0 0)
# Probe 964 (-95.18 0 0)
# Probe 965 (-95.175 0 0)
# Probe 966 (-95.17 0 0)
# Probe 967 (-95.165 0 0)
# Probe 968 (-95.16 0 0)
# Probe 969 (-95.155 0 0)
# Probe 970 (-95.15 0 0)
# Probe 971 (-95.145 0 0)
# Probe 972 (-95.14 0 0)
# Probe 973 (-95.135 0 0)
# Probe 974 (-95.13 0 0)
# Probe 975 (-95.125 0 0)
# Probe 976 (-95.12 0 0)
# Probe 977 (-95.115 0 0)
# Probe 978 (-95.11 0 0)
# Probe 979 (-95.105 0 0)
# Probe 980 (-95.1 0 0)
# Probe 981 (-95.095 0 0)
# Probe 982 (-95.09 0 0)
# Probe 983 (-95.085 0 0)
# Probe 984 (-95.08 0 0)
# Probe 985 (-95.075 0 0)
# Probe 986 (-95.07 0 0)
# Probe 987 (-95.065 0 0)
# Probe 988 (-95.06 0 0)
# Probe 989 (-95.055 0 0)
# Probe 990 (-95.05 0 0)
# Probe 991 (-95.045 0 0)
# Probe 992 (-95.04 0 0)
# Probe 993 (-95.035 0 0)
# Probe 994 (-95.03 0 0)
# Probe 995 (-95.025 0 0)
# Probe 996 (-95.02 0 0)
# Probe 997 (-95.015 0 0)
# Probe 998 (-95.01 0 0)
# Probe 999 (-95.005 0 0)
# Probe 1000 (-95 0 0)
# Probe 1001 (-94.995 0 0)
# Probe 1002 (-94.99 0 0)
# Probe 1003 (-94.985 0 0)
# Probe 1004 (-94.98 0 0)
# Probe 1005 (-94.975 0 0)
# Probe 1006 (-94.97 0 0)
# Probe 1007 (-94.965 0 0)
# Probe 1008 (-94.96 0 0)
# Probe 1009 (-94.955 0 0)
# Probe 1010 (-94.95 0 0)
# Probe 1011 (-94.945 0 0)
# Probe 1012 (-94.94 0 0)
# Probe 1013 (-94.935 0 0)
# Probe 1014 (-94.93 0 0)
# Probe 1015 (-94.925 0 0)
# Probe 1016 (-94.92 0 0)
# Probe 1017 (-94.915 0 0)
# Probe 1018 (-94.91 0 0)
# Probe 1019 (-94.905 0 0)
# Probe 1020 (-94.9 0 0)
# Probe 1021 (-94.895 0 0)
# Probe 1022 (-94.89 0 0)
# Probe 1023 (-94.885 0 0)
# Probe 1024 (-94.88 0 0)
# Probe 1025 (-94.875 0 0)
# Probe 1026 (-94.87 0 0)
# Probe 1027 (-94.865 0 0)
# Probe 1028 (-94.86 0 0)
# Probe 1029 (-94.855 0 0)
# Probe 1030 (-94.85 0 0)
# Probe 1031 (-94.845 0 0)
# Probe 1032 (-94.84 0 0)
# Probe 1033 (-94.835 0 0)
# Probe 1034 (-94.83 0 0)
# Probe 1035 (-94.825 0 0)
# Probe 1036 (-94.82 0 0)
# Probe 1037 (-94.815 0 0)
# Probe 1038 (-94.81 0 0)
# Probe 1039 (-94.805 0 0)
# Probe 1040 (-94.8 0 0)
# Probe 1041 (-94.795 0 0)
# Probe 1042 (-94.79 0 0)
# Probe 1043 (-94.785 0 0)
# Probe 1044 (-94.78 0 0)
# Probe 1045 (-94.775 0 0)
# Probe 1046 (-94.77 0 0)
# Probe 1047 (-94.765 0 0)
# Probe 1048 (-94.76 0 0)
# Probe 1049 (-94.755 0 0)
# Probe 1050 (-94.75 0 0)
# Probe 1051 (-94.745 0 0)
# Probe 1052 (-94.74 0 0)
# Probe 1053 (-94.735 0 0)
# Probe 1054 (-94.73 0 0)
# Probe 1055 (-94.725 0 0)
# Probe 1056 (-94.72 0 0)
# Probe 1057 (-94.715 0 0)
# Probe 1058 (-94.71 0 0)
# Probe 1059 (-94.705 0 0)
# Probe 1060 (-94.7 0 0)
# Probe 1061 (-94.695 0 0)
# Probe 1062 (-94.69 0 0)
# Probe 1063 (-94.685 0 0)
# Probe 1064 (-94.68 0 0)
# Probe 1065 (-94.675 0 0)
# Probe 1066 (-94.67 0 0)
# Probe 1067 (-94.665 0 0)
# Probe 1068 (-94.66 0 0)
# Probe 1069 (-94.655 0 0)
# Probe 1070 (-94.65 0 0)
# Probe 1071 (-94.645 0 0)
# Probe 1072 (-94.64 0 0)
# Probe 1073 (-94.635 0 0)
# Probe 1074 (-94.63 0 0)
# Probe 1075 (-94.625 0 0)
# Probe 1076 (-94.62 0 0)
# Probe 1077 (-94.615 0 0)
# Probe 1078 (-94.61 0 0)
# Probe 1079 (-94.605 0 0)
# Probe 1080 (-94.6 0 0)
# Probe 1081 (-94.595 0 0)
# Probe 1082 (-94.59 0 0)
# Probe 1083 (-94.585 0 0)
# Probe 1084 (-94.58 0 0)
# Probe 1085 (-94.575 0 0)
# Probe 1086 (-94.57 0 0)
# Probe 1087 (-94.565 0 0)
# Probe 1088 (-94.56 0 0)
# Probe 1089 (-94.555 0 0)
# Probe 1090 (-94.55 0 0)
# Probe 1091 (-94.545 0 0)
# Probe 1092 (-94.54 0 0)
# Probe 1093 (-94.535 0 0)
# Probe 1094 (-94.53 0 0)
# Probe 1095 (-94.525 0 0)
# Probe 1096 (-94.52 0 0)
# Probe 1097 (-94.515 0 0)
# Probe 1098 (-94.51 0 0)
# Probe 1099 (-94.505 0 0)
# Probe 1100 (-94.5 0 0)
# Probe 1101 (-94.495 0 0)
# Probe 1102 (-94.49 0 0)
# Probe 1103 (-94.485 0 0)
# Probe 1104 (-94.48 0 0)
# Probe 1105 (-94.475 0 0)
# Probe 1106 (-94.47 0 0)
# Probe 1107 (-94.465 0 0)
# Probe 1108 (-94.46 0 0)
# Probe 1109 (-94.455 0 0)
# Probe 1110 (-94.45 0 0)
# Probe 1111 (-94.445 0 0)
# Probe 1112 (-94.44 0 0)
# Probe 1113 (-94.435 0 0)
# Probe 1114 (-94.43 0 0)
# Probe 1115 (-94.425 0 0)
# Probe 1116 (-94.42 0 0)
# Probe 1117 (-94.415 0 0)
# Probe 1118 (-94.41 0 0)
# Probe 1119 (-94.405 0 0)
# Probe 1120 (-94.4 0 0)
# Probe 1121 (-94.395 0 0)
# Probe 1122 (-94.39 0 0)
# Probe 1123 (-94.385 0 0)
# Probe 1124 (-94.38 0 0)
# Probe 1125 (-94.375 0 0)
# Probe 1126 (-94.37 0 0)
# Probe 1127 (-94.365 0 0)
# Probe 1128 (-94.36 0 0)
# Probe 1129 (-94.355 0 0)
# Probe 1130 (-94.35 0 0)
# Probe 1131 (-94.345 0 0)
# Probe 1132 (-94.34 0 0)
# Probe 1133 (-94.335 0 0)
# Probe 1134 (-94.33 0 0)
# Probe 1135 (-94.325 0 0)
# Probe 1136 (-94.32 0 0)
# Probe 1137 (-94.315 0 0)
# Probe 1138 (-94.31 0 0)
# Probe 1139 (-94.305 0 0)
# Probe 1140 (-94.3 0 0)
# Probe 1141 (-94.295 0 0)
# Probe 1142 (-94.29 0 0)
# Probe 1143 (-94.285 0 0)
# Probe 1144 (-94.28 0 0)
# Probe 1145 (-94.275 0 0)
# Probe 1146 (-94.27 0 0)
# Probe 1147 (-94.265 0 0)
# Probe 1148 (-94.26 0 0)
# Probe 1149 (-94.255 0 0)
# Probe 1150 (-94.25 0 0)
# Probe 1151 (-94.245 0 0)
# Probe 1152 (-94.24 0 0)
# Probe 1153 (-94.235 0 0)
# Probe 1154 (-94.23 0 0)
# Probe 1155 (-94.225 0 0)
# Probe 1156 (-94.22 0 0)
# Probe 1157 (-94.215 0 0)
# Probe 1158 (-94.21 0 0)
# Probe 1159 (-94.205 0 0)
# Probe 1160 (-94.2 0 0)
# Probe 1161 (-94.195 0 0)
# Probe 1162 (-94.19 0 0)
# Probe 1163 (-94.185 0 0)
# Probe 1164 (-94.18 0 0)
# Probe 1165 (-94.175 0 0)
# Probe 1166 (-94.17 0 0)
# Probe 1167 (-94.165 0 0)
# Probe 1168 (-94.16 0 0)
# Probe 1169 (-94.155 0 0)
# Probe 1170 (-94.15 0 0)
# Probe 1171 (-94.145 0 0)
# Probe 1172 (-94.14 0 0)
# Probe 1173 (-94.135 0 0)
# Probe 1174 (-94.13 0 0)
# Probe 1175 (-94.125 0 0)